 &FCI NORB=  16,NELEC=14,MS2=0,
  ORBSYM=1,1,1,1,1,1,1,1,1,1,1,1,1,1,1,1,
  ISYM=1,
 &END
 0.8175266716217342    1    1    1    1
 0.5196562970359155    1    1    2    2
 0.1428881743546484    1    1    3    1
 0.567326929612325    1    1    3    3
 0.6320081464169857    1    1    4    4
 0.6320081464169857    1    1    5    5
 0.5299442506963681    1    1    6    6
 0.5299442506963681    1    1    7    7
 0.0986700406883856    1    1    8    2
 0.3730356567693071    1    1    8    8
 -0.08946677589516333    1    1    9    1
 -0.1302990781962571    1    1    9    3
 0.4688973800283391    1    1    9    9
 0.1597156158419364    1    1   10    4
 0.5096330343794354    1    1   10   10
 0.1597156158419364    1    1   11    5
 0.5096330343794354    1    1   11   11
 0.08271541322865915    1    1   12    1
 -0.05283806013045177    1    1   12    3
 1.059394179963041e-15    1    1   12    8
 -0.06077289912582592    1    1   12    9
 0.470293682182902    1    1   12   12
 -0.164249322926866    1    1   13    6
 0.5019552222399681    1    1   13   13
 -0.164249322926866    1    1   14    7
 0.5019552222399681    1    1   14   14
 -0.01076844125195363    1    1   15    2
 0.1054629921869302    1    1   15    8
 0.6041757606936237    1    1   15   15
 -0.08362474081751491    1    1   16    2
 -0.1189927601402013    1    1   16    8
 -0.1090460703490185    1    1   16   15
 0.5239395970021451    1    1   16   16
 0.05433332684721439    2    1    2    1
 -0.09168161638806446    2    1    3    2
 0.08074931067971303    2    1    6    5
 0.08074931067971301    2    1    7    4
 0.03275019308730737    2    1    8    1
 0.007036819921721392    2    1    8    3
 0.002108999831632658    2    1    9    2
 0.03515188390910383    2    1    9    8
 0.02306920994298974    2    1   10    7
 0.02306920994298973    2    1   11    6
 0.04012946868616367    2    1   12    2
 0.03243130338403413    2    1   12    8
 -0.04493902106456982    2    1   13    5
 -0.06722711632434446    2    1   13   11
 -0.04493902106456983    2    1   14    4
 -0.06722711632434444    2    1   14   10
 0.03491731122796174    2    1   15    1
 0.05687548029719508    2    1   15    3
 -0.02159017700742649    2    1   15    9
 -0.052867849702789    2    1   15   12
 -0.03872407047448133    2    1   16    1
 -0.009360631448232747    2    1   16    3
 0.009735271751607278    2    1   16    9
 -0.04360341053846137    2    1   16   12
 0.5196562970359155    2    2    1    1
 0.535894062042912    2    2    2    2
 0.00546011603941179    2    2    3    1
 0.5401634544043463    2    2    3    3
 0.4923125679399724    2    2    4    4
 0.4923125679399724    2    2    5    5
 0.4787482916745536    2    2    6    6
 0.4787482916745536    2    2    7    7
 0.0533104445617746    2    2    8    2
 0.367751859873806    2    2    8    8
 -0.02313434735478703    2    2    9    1
 -0.04941395044954076    2    2    9    3
 0.3962699046175714    2    2    9    9
 0.09055201213574669    2    2   10    4
 0.4188404111897018    2    2   10   10
 0.09055201213574669    2    2   11    5
 0.4188404111897018    2    2   11   11
 0.05144889890889839    2    2   12    1
 -0.09415028680155298    2    2   12    3
 0.003248560373981771    2    2   12    9
 0.4524322731232552    2    2   12   12
 -0.1116625991365005    2    2   13    6
 0.4418861505717208    2    2   13   13
 -0.1116625991365005    2    2   14    7
 0.4418861505717208    2    2   14   14
 -0.08086475242395869    2    2   15    2
 0.03897821578337524    2    2   15    8
 0.5365637258627228    2    2   15   15
 -0.04715350208101232    2    2   16    2
 -0.06976951886674508    2    2   16    8
 -0.03108881106706885    2    2   16   15
 0.427876378872062    2    2   16   16
 0.1428881743546484    3    1    1    1
 0.005460116039411779    3    1    2    2
 0.06668409949209216    3    1    3    1
 0.03290364666497347    3    1    3    3
 0.06192461579826603    3    1    4    4
 0.06192461579826603    3    1    5    5
 0.02573492767326295    3    1    6    6
 0.02573492767326295    3    1    7    7
 0.01733225830884469    3    1    8    2
 0.009014631115001243    3    1    8    8
 -0.0406326976124598    3    1    9    1
 -0.03937614858899961    3    1    9    3
 0.03801400005984247    3    1    9    9
 0.03659172421859692    3    1   10    4
 0.04168621995968665    3    1   10   10
 0.03659172421859692    3    1   11    5
 0.04168621995968664    3    1   11   11
 0.02036281592383013    3    1   12    1
 0.01093836577664798    3    1   12    3
 -0.02176507881770644    3    1   12    9
 0.01482369841226624    3    1   12   12
 -0.02742855834744336    3    1   13    6
 0.03184973357802626    3    1   13   13
 -0.02742855834744336    3    1   14    7
 0.03184973357802627    3    1   14   14
 0.01809870681878239    3    1   15    2
 0.02779823180302078    3    1   15    8
 0.04856139275484173    3    1   15   15
 -0.01795596126280281    3    1   16    2
 -0.02424026765068746    3    1   16    8
 -0.03899242955682129    3    1   16   15
 0.04593315191137699    3    1   16   16
 -0.09168161638806444    3    2    2    1
 0.2084245907811945    3    2    3    2
 -0.133296593672544    3    2    6    5
 -0.133296593672544    3    2    7    4
 -0.03831982745370067    3    2    8    1
 -0.02279757126196989    3    2    8    3
 0.006890930864340951    3    2    9    2
 -0.08796908147728179    3    2    9    8
 -0.02474937980179319    3    2   10    7
 -0.02474937980179319    3    2   11    6
 -0.08382362181848114    3    2   12    2
 -0.07025517303255072    3    2   12    8
 0.06309951823996622    3    2   13    5
 0.1128249168249334    3    2   13   11
 0.06309951823996622    3    2   14    4
 0.1128249168249334    3    2   14   10
 -0.03074172677977771    3    2   15    1
 -0.126172326869108    3    2   15    3
 0.04270939256914538    3    2   15    9
 0.1290369821231998    3    2   15   12
 0.04233075330847996    3    2   16    1
 0.01215498141746287    3    2   16    3
 1.427631643622922e-15    3    2   16    8
 -0.008920146024617973    3    2   16    9
 0.07240789164443172    3    2   16   12
 2.703798775646292e-15    3    2   16   16
 0.5673269296123251    3    3    1    1
 0.5401634544043463    3    3    2    2
 0.03290364666497336    3    3    3    1
 0.5624411375816514    3    3    3    3
 0.5037581793634442    3    3    4    4
 0.5037581793634442    3    3    5    5
 0.4808897285243084    3    3    6    6
 0.4808897285243084    3    3    7    7
 0.05259159945688229    3    3    8    2
 0.374308506154391    3    3    8    8
 -0.04553816677591509    3    3    9    1
 -0.06282514428283882    3    3    9    3
 0.4120718531689538    3    3    9    9
 0.1023578406110975    3    3   10    4
 0.4278690487866919    3    3   10   10
 0.1023578406110975    3    3   11    5
 0.4278690487866919    3    3   11   11
 0.06073624394647761    3    3   12    1
 -0.0939423792137886    3    3   12    3
 0.001436143177221346    3    3   12    9
 0.4583558702290466    3    3   12   12
 -0.1180462775006862    3    3   13    6
 0.4488826151799358    3    3   13   13
 -0.1180462775006862    3    3   14    7
 0.4488826151799358    3    3   14   14
 -0.08585157035680807    3    3   15    2
 0.04467939594159378    3    3   15    8
 0.5615427520971182    3    3   15   15
 -0.05112405532307417    3    3   16    2
 -0.07624055408475358    3    3   16    8
 -1.08814006069262e-15    3    3   16    9
 1.106389131318211e-15    3    3   16   12
 -0.04600491605748486    3    3   16   15
 0.4392582255111799    3    3   16   16
 0.1004521727978652    4    1    4    1
 -0.01102003930195721    4    1    4    3
 0.06371552718299935    4    1    7    2
 0.03243964385583711    4    1    8    7
 0.02449391883156217    4    1    9    4
 0.03902913945804397    4    1   10    1
 0.0174421557559307    4    1   10    3
 -0.02481149645788997    4    1   10    9
 -0.005797662259541356    4    1   12    4
 0.05211340080449414    4    1   12   10
 -0.02343804320248728    4    1   14    2
 -0.02948278234750595    4    1   14    8
 0.03910895276095652    4    1   15    7
 -0.005311906889802559    4    1   15   14
 -0.01430002466758993    4    1   16    7
 0.05790225416145675    4    1   16   14
 0.04162691573783997    4    2    4    2
 0.03364493325166793    4    2    7    1
 -0.03386077325817226    4    2    7    3
 0.01968764896323881    4    2    8    4
 0.005126862358510145    4    2    9    7
 0.009402745102208059    4    2   10    2
 0.01391232359412991    4    2   10    8
 0.006772754294771819    4    2   12    7
 -0.01896187267974882    4    2   14    1
 0.007862888691776501    4    2   14    3
 -0.006773455182227113    4    2   14    9
 -0.03124047100396627    4    2   14   12
 0.01442740495595485    4    2   15    4
 -0.005069500688473872    4    2   15   10
 -0.01206752472888291    4    2   16    4
 -0.03047471315979628    4    2   16   10
 -0.0110200393019572    4    3    4    1
 0.02354750481398679    4    3    4    3
 -0.03284459264448228    4    3    7    2
 -0.005258942206792477    4    3    8    7
 -0.01002332535811055    4    3    9    4
 0.003780136527958476    4    3   10    1
 0.002301271991379932    4    3   10    3
 -0.001481247727119795    4    3   10    9
 0.0002371547576895578    4    3   12    4
 -0.0208782151232868    4    3   12   10
 0.008178880463380968    4    3   14    2
 0.01052169948014335    4    3   14    8
 -0.002048759716577218    4    3   15    7
 -0.01498096151241441    4    3   15   14
 -0.005357566332485089    4    3   16    7
 -0.01702719659398104    4    3   16   14
 0.6320081464169857    4    4    1    1
 0.4923125679399724    4    4    2    2
 0.06192461579826598    4    4    3    1
 0.5037581793634445    4    4    3    3
 0.5748528396979687    4    4    4    4
 0.5284956636000538    4    4    5    5
 0.471840911379433    4    4    6    6
 0.5075792708818079    4    4    7    7
 0.07922541157557773    4    4    8    2
 0.3510085508639827    4    4    8    8
 -0.0332992590928678    4    4    9    1
 -0.08313809539061837    4    4    9    3
 0.4163095456893793    4    4    9    9
 0.1137290849981326    4    4   10    4
 0.4730562605450523    4    4   10   10
 0.1060226165762584    4    4   11    5
 0.4417904049680211    4    4   11   11
 0.05130847568685985    4    4   12    1
 -0.05844034864657432    4    4   12    3
 -0.04122256337567954    4    4   12    9
 0.4428157447086037    4    4   12   12
 -0.1209437935361653    4    4   13    6
 0.4432921266492687    4    4   13   13
 -0.132444225078769    4    4   14    7
 0.4710731581960131    4    4   14   14
 -0.02143810193144883    4    4   15    2
 0.07322727499956934    4    4   15    8
 0.5282189461993144    4    4   15   15
 -0.05953502554168842    4    4   16    2
 -0.08658549674131089    4    4   16    8
 -0.05880634781531487    4    4   16   15
 0.4625821622682799    4    4   16   16
 0.1004521727978652    5    1    5    1
 -0.01102003930195721    5    1    5    3
 0.06371552718299935    5    1    6    2
 0.03243964385583711    5    1    8    6
 0.02449391883156217    5    1    9    5
 0.03902913945804397    5    1   11    1
 0.0174421557559307    5    1   11    3
 -0.02481149645788997    5    1   11    9
 -0.005797662259541357    5    1   12    5
 0.05211340080449414    5    1   12   11
 -0.02343804320248728    5    1   13    2
 -0.02948278234750595    5    1   13    8
 0.03910895276095652    5    1   15    6
 -0.005311906889802559    5    1   15   13
 -0.01430002466758993    5    1   16    6
 0.05790225416145676    5    1   16   13
 0.04162691573783997    5    2    5    2
 0.03364493325166793    5    2    6    1
 -0.03386077325817226    5    2    6    3
 0.01968764896323881    5    2    8    5
 0.005126862358510145    5    2    9    6
 0.009402745102208059    5    2   11    2
 0.01391232359412991    5    2   11    8
 0.006772754294771819    5    2   12    6
 -0.01896187267974882    5    2   13    1
 0.007862888691776501    5    2   13    3
 -0.006773455182227113    5    2   13    9
 -0.03124047100396627    5    2   13   12
 0.01442740495595486    5    2   15    5
 -0.005069500688473869    5    2   15   11
 -0.01206752472888291    5    2   16    5
 -0.03047471315979628    5    2   16   11
 -0.0110200393019572    5    3    5    1
 0.02354750481398679    5    3    5    3
 -0.03284459264448228    5    3    6    2
 -0.005258942206792487    5    3    8    6
 -0.01002332535811055    5    3    9    5
 0.003780136527958476    5    3   11    1
 0.002301271991379932    5    3   11    3
 -0.001481247727119794    5    3   11    9
 0.0002371547576895578    5    3   12    5
 -0.0208782151232868    5    3   12   11
 0.008178880463380968    5    3   13    2
 0.01052169948014335    5    3   13    8
 -0.002048759716577218    5    3   15    6
 -0.01498096151241441    5    3   15   13
 -0.005357566332485089    5    3   16    6
 -0.01702719659398104    5    3   16   13
 0.02317858804895744    5    4    5    4
 0.0178691797511873    5    4    7    6
 0.003853234210937132    5    4   10    5
 0.003853234210937132    5    4   11    4
 0.01563292778851558    5    4   11   10
 -0.005750215771301894    5    4   13    7
 -0.005750215771301894    5    4   14    6
 0.01389051577337213    5    4   14   13
 0.6320081464169857    5    5    1    1
 0.4923125679399724    5    5    2    2
 0.06192461579826598    5    5    3    1
 0.5037581793634445    5    5    3    3
 0.5284956636000538    5    5    4    4
 0.5748528396979687    5    5    5    5
 0.5075792708818079    5    5    6    6
 0.471840911379433    5    5    7    7
 0.07922541157557773    5    5    8    2
 0.3510085508639828    5    5    8    8
 -0.0332992590928678    5    5    9    1
 -0.08313809539061835    5    5    9    3
 0.4163095456893793    5    5    9    9
 0.1060226165762584    5    5   10    4
 0.4417904049680211    5    5   10   10
 0.1137290849981326    5    5   11    5
 0.4730562605450523    5    5   11   11
 0.05130847568685985    5    5   12    1
 -0.05844034864657432    5    5   12    3
 -0.04122256337567955    5    5   12    9
 0.4428157447086037    5    5   12   12
 -0.132444225078769    5    5   13    6
 0.4710731581960131    5    5   13   13
 -0.1209437935361653    5    5   14    7
 0.4432921266492687    5    5   14   14
 -0.02143810193144884    5    5   15    2
 0.07322727499956931    5    5   15    8
 0.5282189461993144    5    5   15   15
 -0.05953502554168843    5    5   16    2
 -0.08658549674131086    5    5   16    8
 -0.05880634781531495    5    5   16   15
 0.46258216226828    5    5   16   16
 0.03364493325166792    6    1    5    2
 0.03158116415682368    6    1    6    1
 -0.02189331688794101    6    1    6    3
 0.01956353448141749    6    1    8    5
 0.00381686492416918    6    1    9    6
 0.008916871006909072    6    1   11    2
 0.01276375778688838    6    1   11    8
 0.005199000515993541    6    1   12    6
 -0.02049897036367687    6    1   13    1
 0.003010650903148995    6    1   13    3
 -0.002352304741545149    6    1   13    9
 -0.02398382048787474    6    1   13   12
 0.01888110595661324    6    1   15    5
 0.001839363211407594    6    1   15   11
 -0.01498150142708456    6    1   16    5
 -0.0284584936357688    6    1   16   11
 0.06371552718299933    6    2    5    1
 -0.03284459264448227    6    2    5    3
 0.07184428411419973    6    2    6    2
 0.02120208962480132    6    2    8    6
 0.0201810603045526    6    2    9    5
 0.01753553618327864    6    2   11    1
 0.007654320137073881    6    2   11    3
 -0.008874588613260261    6    2   11    9
 -0.001311143106934337    6    2   12    5
 0.05000221662013726    6    2   12   11
 -0.02091025074715483    6    2   13    2
 -0.02915626849524167    6    2   13    8
 0.02260593257888327    6    2   15    6
 0.01414870894843344    6    2   15   13
 -0.001475838311729261    6    2   16    6
 0.04998054245187788    6    2   16   13
 -0.03386077325817226    6    3    5    2
 -0.02189331688794102    6    3    6    1
 0.03579050684268775    6    3    6    3
 -0.009910811789123539    6    3    8    5
 -0.00232385325995628    6    3    9    6
 -0.003010581843433693    6    3   11    2
 -0.01026342686119141    6    3   11    8
 -0.002540687885843957    6    3   12    6
 0.007651332917284544    6    3   13    1
 -0.007407284107489177    6    3   13    3
 0.01034508100543884    6    3   13    9
 0.02829846608276989    6    3   13   12
 -0.003791417850925629    6    3   15    5
 0.01226536053286436    6    3   15   11
 0.0009109822185747239    6    3   16    5
 0.02109542305106114    6    3   16   11
 0.01367988477814161    6    4    6    4
 0.01367988477814161    6    4    7    5
 0.002451263381165505    6    4   10    6
 0.002451263381165505    6    4   11    7
 -0.006137954415137544    6    4   13    4
 -0.009927482753692004    6    4   13   10
 -0.006137954415137544    6    4   14    5
 -0.009927482753692004    6    4   14   11
 0.08074931067971304    6    5    2    1
 -0.133296593672544    6    5    3    2
 0.137423383179285    6    5    6    5
 0.1100636136230018    6    5    7    4
 0.04949930053815112    6    5    8    1
 0.009904735492805315    6    5    8    3
 0.004492037339159352    6    5    9    2
 0.05310178186348062    6    5    9    8
 0.03037885764082316    6    5   10    7
 0.03528138440315415    6    5   11    6
 0.05537166172451539    6    5   12    2
 0.04786504939240631    6    5   12    8
 -0.07272025084338518    6    5   13    5
 -0.115070224867132    6    5   13   11
 -0.06044434201311007    6    5   14    4
 -0.0952152593597478    6    5   14   10
 0.05475744496787386    6    5   15    1
 0.07963256757500946    6    5   15    3
 -0.03237128106395466    6    5   15    9
 -0.0783637267429621    6    5   15   12
 -0.05685997877926    6    5   16    1
 -0.01538995012892485    6    5   16    3
 0.01625069156650824    6    5   16    9
 -0.06811107205301621    6    5   16   12
 -1.392923341992187e-15    6    5   16   16
 0.5299442506963683    6    6    1    1
 0.4787482916745537    6    6    2    2
 0.02573492767326291    6    6    3    1
 0.4808897285243084    6    6    3    3
 0.471840911379433    6    6    4    4
 0.5075792708818075    6    6    5    5
 0.4792788492890985    6    6    6    6
 0.4427778670602007    6    6    7    7
 0.05963556991067584    6    6    8    2
 0.344911993518781    6    6    8    8
 -0.02272569847320046    6    6    9    1
 -0.0571156309410774    6    6    9    3
 0.3848985064392662    6    6    9    9
 0.08365314093154874    6    6   10    4
 0.4046508519378988    6    6   10   10
 0.08770452263694216    6    6   11    5
 0.4318401922097517    6    6   11   11
 0.04320907153393336    6    6   12    1
 -0.06003903593167485    6    6   12    3
 -0.01705753710736096    6    6   12    9
 0.4214909034326224    6    6   12   12
 -0.1059164036870705    6    6   13    6
 0.4440210396151948    6    6   13   13
 -0.0986653095645797    6    6   14    7
 0.4152978816347033    6    6   14   14
 -0.03461966617202834    6    6   15    2
 0.04980018941667687    6    6   15    8
 0.4895639479907014    6    6   15   15
 -0.04426034267861763    6    6   16    2
 -0.06898143016642377    6    6   16    8
 -1.023229562817726e-15    6    6   16    9
 -0.03626449580395422    6    6   16   15
 0.4252926695270903    6    6   16   16
 0.03364493325166792    7    1    4    2
 0.03158116415682368    7    1    7    1
 -0.02189331688794101    7    1    7    3
 0.01956353448141749    7    1    8    4
 0.003816864924169178    7    1    9    7
 0.008916871006909072    7    1   10    2
 0.01276375778688838    7    1   10    8
 0.005199000515993541    7    1   12    7
 -0.02049897036367687    7    1   14    1
 0.003010650903148995    7    1   14    3
 -0.00235230474154515    7    1   14    9
 -0.02398382048787474    7    1   14   12
 0.01888110595661324    7    1   15    4
 0.001839363211407594    7    1   15   10
 -0.01498150142708456    7    1   16    4
 -0.02845849363576881    7    1   16   10
 0.06371552718299933    7    2    4    1
 -0.03284459264448227    7    2    4    3
 0.07184428411419973    7    2    7    2
 0.02120208962480131    7    2    8    7
 0.0201810603045526    7    2    9    4
 0.01753553618327864    7    2   10    1
 0.007654320137073884    7    2   10    3
 -0.008874588613260254    7    2   10    9
 -0.001311143106934335    7    2   12    4
 0.05000221662013726    7    2   12   10
 -0.02091025074715483    7    2   14    2
 -0.02915626849524167    7    2   14    8
 0.02260593257888327    7    2   15    7
 0.01414870894843344    7    2   15   14
 -0.001475838311729268    7    2   16    7
 0.04998054245187789    7    2   16   14
 -0.03386077325817226    7    3    4    2
 -0.02189331688794102    7    3    7    1
 0.03579050684268775    7    3    7    3
 -0.009910811789123539    7    3    8    4
 -0.002323853259956276    7    3    9    7
 -0.003010581843433692    7    3   10    2
 -0.01026342686119141    7    3   10    8
 -0.002540687885843963    7    3   12    7
 0.007651332917284542    7    3   14    1
 -0.007407284107489177    7    3   14    3
 0.01034508100543884    7    3   14    9
 0.02829846608276988    7    3   14   12
 -0.003791417850925627    7    3   15    4
 0.01226536053286436    7    3   15   10
 0.0009109822185747235    7    3   16    4
 0.02109542305106114    7    3   16   10
 0.08074931067971304    7    4    2    1
 -0.133296593672544    7    4    3    2
 0.1100636136230018    7    4    6    5
 0.137423383179285    7    4    7    4
 0.04949930053815112    7    4    8    1
 0.009904735492805312    7    4    8    3
 0.004492037339159359    7    4    9    2
 0.05310178186348068    7    4    9    8
 0.03528138440315415    7    4   10    7
 0.03037885764082316    7    4   11    6
 0.05537166172451539    7    4   12    2
 0.04786504939240629    7    4   12    8
 -0.06044434201311007    7    4   13    5
 -0.0952152593597478    7    4   13   11
 -0.07272025084338518    7    4   14    4
 -0.115070224867132    7    4   14   10
 0.05475744496787387    7    4   15    1
 0.07963256757500946    7    4   15    3
 -0.03237128106395467    7    4   15    9
 -0.07836372674296208    7    4   15   12
 -0.05685997877926003    7    4   16    1
 -0.01538995012892485    7    4   16    3
 0.01625069156650828    7    4   16    9
 -0.06811107205301629    7    4   16   12
 -1.336380404061581e-15    7    4   16   16
 0.01367988477814161    7    5    6    4
 0.01367988477814161    7    5    7    5
 0.002451263381165505    7    5   10    6
 0.002451263381165505    7    5   11    7
 -0.006137954415137544    7    5   13    4
 -0.009927482753692004    7    5   13   10
 -0.006137954415137544    7    5   14    5
 -0.009927482753692004    7    5   14   11
 0.0178691797511873    7    6    5    4
 0.01825049111444885    7    6    7    6
 0.002025690852696687    7    6   10    5
 0.002025690852696687    7    6   11    4
 0.0135946701359264    7    6   11   10
 -0.003625547061245472    7    6   13    7
 -0.003625547061245472    7    6   14    6
 0.01436157899024557    7    6   14   13
 0.5299442506963683    7    7    1    1
 0.4787482916745537    7    7    2    2
 0.02573492767326291    7    7    3    1
 0.4808897285243084    7    7    3    3
 0.5075792708818075    7    7    4    4
 0.471840911379433    7    7    5    5
 0.4427778670602007    7    7    6    6
 0.4792788492890985    7    7    7    7
 0.05963556991067584    7    7    8    2
 0.344911993518781    7    7    8    8
 -0.02272569847320047    7    7    9    1
 -0.05711563094107741    7    7    9    3
 0.3848985064392662    7    7    9    9
 0.08770452263694216    7    7   10    4
 0.4318401922097517    7    7   10   10
 0.08365314093154874    7    7   11    5
 0.4046508519378988    7    7   11   11
 0.04320907153393335    7    7   12    1
 -0.06003903593167483    7    7   12    3
 -0.01705753710736098    7    7   12    9
 0.4214909034326224    7    7   12   12
 -0.0986653095645797    7    7   13    6
 0.4152978816347033    7    7   13   13
 -0.1059164036870705    7    7   14    7
 0.4440210396151948    7    7   14   14
 -0.03461966617202832    7    7   15    2
 0.04980018941667694    7    7   15    8
 0.4895639479907014    7    7   15   15
 -0.04426034267861763    7    7   16    2
 -0.06898143016642377    7    7   16    8
 -1.025230388951293e-15    7    7   16    9
 -0.0362644958039542    7    7   16   15
 0.4252926695270903    7    7   16   16
 0.03275019308730746    8    1    2    1
 -0.03831982745370069    8    1    3    2
 0.04949930053815091    8    1    6    5
 0.04949930053815091    8    1    7    4
 0.02761126298321798    8    1    8    1
 1.375745299492608e-15    8    1    8    2
 -0.0008080125099790916    8    1    8    3
 1.338794918201443e-14    8    1    8    8
 0.007123728479171911    8    1    9    2
 0.006051380668453637    8    1    9    8
 0.02305547380740751    8    1   10    7
 0.02305547380740751    8    1   11    6
 0.02447878326511764    8    1   12    2
 0.01294434449600582    8    1   12    8
 -0.03528663359039064    8    1   13    5
 -0.04155790506290834    8    1   13   11
 -0.03528663359039064    8    1   14    4
 -0.04155790506290834    8    1   14   10
 0.0340436335536804    8    1   15    1
 0.03399426608086038    8    1   15    3
 -0.01510536040798579    8    1   15    9
 -0.02042181562606559    8    1   15   12
 -0.03594012397309097    8    1   16    1
 2.061862475553567e-15    8    1   16    2
 -0.007496839578823288    8    1   16    3
 1.454460476462633e-14    8    1   16    8
 0.009758842031384933    8    1   16    9
 -0.02698298722101505    8    1   16   12
 1.264302404253134e-14    8    1   16   16
 0.09867004068838563    8    2    1    1
 0.05331044456177448    8    2    2    2
 0.01733225830884471    8    2    3    1
 0.05259159945688235    8    2    3    3
 0.07922541157557747    8    2    4    4
 0.07922541157557747    8    2    5    5
 0.05963556991067497    8    2    6    6
 0.05963556991067497    8    2    7    7
 1.110708815458611e-15    8    2    8    1
 0.03441628181571839    8    2    8    2
 0.001911302698215275    8    2    8    8
 -0.005866700823468994    8    2    9    1
 -0.03445957823034216    8    2    9    3
 0.02756182802439808    8    2    9    9
 0.03243905509807377    8    2   10    4
 0.05490457454103563    8    2   10   10
 0.03243905509807378    8    2   11    5
 0.05490457454103562    8    2   11   11
 0.01570983209206652    8    2   12    1
 -0.02130767400249975    8    2   12    3
 4.440531603874597e-15    8    2   12    8
 -0.01916475877853534    8    2   12    9
 0.04469155495370077    8    2   12   12
 -0.04039606036126669    8    2   13    6
 0.05330619740414106    8    2   13   13
 -0.04039606036126668    8    2   14    7
 0.05330619740414106    8    2   14   14
 -0.003939774729160056    8    2   15    2
 0.02454121669337968    8    2   15    8
 0.06747403324753837    8    2   15   15
 1.336837224371469e-15    8    2   16    1
 -0.02122801793706166    8    2   16    2
 -0.0267667461009721    8    2   16    8
 6.612635583491823e-15    8    2   16   12
 -0.01394067832315312    8    2   16   15
 0.05267259154224217    8    2   16   16
 0.00703681992172139    8    3    2    1
 -0.02279757126196979    8    3    3    2
 0.009904735492805218    8    3    6    5
 0.009904735492805218    8    3    7    4
 -0.0008080125099792409    8    3    8    1
 0.02341725538933951    8    3    8    3
 -1.395916227121206e-14    8    3    8    8
 -0.01741897960844577    8    3    9    2
 0.03601901562447423    8    3    9    8
 -0.00867002087395945    8    3   10    7
 -0.008670020873959452    8    3   11    6
 -0.007727585795152282    8    3   12    2
 0.02180025203522152    8    3   12    8
 0.004034409246385478    8    3   13    5
 -0.01348665049226411    8    3   13   11
 0.004034409246385474    8    3   14    4
 -0.01348665049226411    8    3   14   10
 0.006116810430215707    8    3   15    1
 0.005053220674370497    8    3   15    3
 -0.0102323990436242    8    3   15    9
 -0.01281814994054675    8    3   15   12
 -0.002389464689109953    8    3   16    1
 -0.008384926849591067    8    3   16    3
 -1.541466665708527e-14    8    3   16    8
 0.007117667313566536    8    3   16    9
 -0.003025665510630389    8    3   16   12
 -1.380985261913249e-14    8    3   16   16
 0.01968764896323882    8    4    4    2
 0.01956353448141747    8    4    7    1
 -0.009910811789123505    8    4    7    3
 0.01437072627061319    8    4    8    4
 0.005502489801722157    8    4    9    7
 0.008297120774385469    8    4   10    2
 0.005825764074939333    8    4   10    8
 0.00604029741594584    8    4   12    7
 -0.0142207185061289    8    4   14    1
 0.004371547010072409    8    4   14    3
 0.00144337498656651    8    4   14    9
 -0.01178533517990047    8    4   14   12
 0.01198600653110282    8    4   15    4
 0.003123215375205407    8    4   15   10
 -0.01156801191570332    8    4   16    4
 -0.01673904343315906    8    4   16   10
 0.01968764896323882    8    5    5    2
 0.01956353448141747    8    5    6    1
 -0.009910811789123505    8    5    6    3
 0.01437072627061319    8    5    8    5
 0.005502489801722158    8    5    9    6
 0.008297120774385469    8    5   11    2
 0.005825764074939331    8    5   11    8
 0.006040297415945839    8    5   12    6
 -0.0142207185061289    8    5   13    1
 0.004371547010072411    8    5   13    3
 0.001443374986566507    8    5   13    9
 -0.01178533517990046    8    5   13   12
 0.01198600653110282    8    5   15    5
 0.003123215375205416    8    5   15   11
 -0.01156801191570332    8    5   16    5
 -0.01673904343315906    8    5   16   11
 0.03243964385583698    8    6    5    1
 -0.005258942206792384    8    6    5    3
 0.02120208962480128    8    6    6    2
 0.01767752113308388    8    6    8    6
 0.01083984268432017    8    6    9    5
 0.01414395278935015    8    6   11    1
 0.0001713967165896815    8    6   11    3
 -0.01007375397966739    8    6   11    9
 0.002771534629532022    8    6   12    5
 0.01476131528464637    8    6   12   11
 -0.01482491231019451    8    6   13    2
 -0.005522904709431263    8    6   13    8
 0.01059936899486562    8    6   15    6
 -0.004803937401889262    8    6   15   13