 &FCI NORB=  16,NELEC= 4,MS2=0,
  ORBSYM=1,1,1,1,1,1,1,1,1,1,1,1,1,1,1,1,
  ISYM=1,
 &END
 0.5956082417891796    1    1    1    1
 0.4896344275045179    1    1    2    2
 -0.09515839272086835    1    1    3    1
 -6.376453296561232e-15    1    1    3    2
 0.3522535650161577    1    1    3    3
 -1.190276105440815e-14    1    1    4    1
 0.09570210529499237    1    1    4    2
 1.156860733626516e-14    1    1    4    3
 0.2774699973297545    1    1    4    4
 -0.06772380989648631    1    1    5    1
 -5.680443885787298e-15    1    1    5    2
 0.0006181823629367055    1    1    5    3
 1.806535644486255e-15    1    1    5    4
 0.3937338150805491    1    1    5    5
 0.06482078210828847    1    1    6    1
 8.753478510567414e-14    1    1    6    2
 -0.1399231103170692    1    1    6    3
 3.925522914471544e-14    1    1    6    4
 -0.002709667957601586    1    1    6    5
 0.4554855258601471    1    1    6    6
 -7.923098963269127e-14    1    1    7    1
 0.068407011760877    1    1    7    2
 1.666903966133998e-13    1    1    7    3
 0.04498859748327134    1    1    7    4
 2.071797641531763e-15    1    1    7    5
 -1.094442700145194e-13    1    1    7    6
 0.3604782544592521    1    1    7    7
 0.5655720263123666    1    1    8    8
 0.5655720263123674    1    1    9    9
 -1.456097115946771e-15    1    1   10    1
 0.07153249414496049    1    1   10    2
 -3.39549116692968e-15    1    1   10    3
 0.09144593277790979    1    1   10    4
 -4.443025640820642e-15    1    1   10    5
 3.686682650486509e-14    1    1   10    6
 0.02640090411000308    1    1   10    7
 0.5053511625298232    1    1   10   10
 0.4878344333391488    1    1   11   11
 0.4878344333391496    1    1   12   12
 -0.05566139068602682    1    1   13    8
 0.05079713280498439    1    1   13    9
 0.4900539865666363    1    1   13   13
 -0.05079713280498429    1    1   14    8
 -0.055661390686027    1    1   14    9
 0.4900539865666366    1    1   14   14
 0.004427307428056129    1    1   15    1
 0.02824491547557537    1    1   15    3
 4.627575951233756e-15    1    1   15    4
 -0.02792830647797365    1    1   15    5
 -0.09565861425465451    1    1   15    6
 1.151748596383024e-13    1    1   15    7
 2.366945054023252e-15    1    1   15   10
 0.5012625704792554    1    1   15   15
 -0.03909471731772408    1    1   16   11
 -0.06394957384679663    1    1   16   12
 0.529724196412719    1    1   16   16
 0.1505904220856161    2    1    2    1
 -3.176048794479084e-15    2    1    3    1
 0.05523387789586329    2    1    3    2
 7.025947491470775e-15    2    1    3    3
 0.04861667581594828    2    1    4    1
 4.823315056367127e-15    2    1    4    2
 -0.05302508840539581    2    1    4    3
 -8.871175945762972e-15    2    1    4    4
 -3.009802265610528e-15    2    1    5    1
 -0.05915228731771635    2    1    5    2
 3.318421428868404e-15    2    1    5    3
 -0.02241847757819348    2    1    5    4
 5.053774107918115e-15    2    1    5    5
 5.623025709178354e-14    2    1    6    1
 -0.07587047553788852    2    1    6    2
 -2.982819396301555e-15    2    1    6    3
 -0.04112668213030844    2    1    6    4
 -9.562292611259813e-14    2    1    6    5
 -8.31000505264697e-14    2    1    6    6
 0.04445686919988357    2    1    7    1
 8.941071612969462e-14    2    1    7    2
 -0.00269309451047587    2    1    7    3
 5.125762859779736e-14    2    1    7    4
 -0.07952363561596805    2    1    7    5
 -0.034574265615147    2    1    7    6
 7.627006930334215e-14    2    1    7    7
 -1.027706828510807e-15    2    1    8    8
 0.03832427314426771    2    1   10    1
 -0.0742989122275711    2    1   10    3
 -7.625720138600679e-15    2    1   10    4
 0.0115975164177763    2    1   10    5
 0.1007841185844058    2    1   10    6
 -1.218430407177655e-13    2    1   10    7
 -3.032315544112294e-15    2    1   10   10
 -0.02506029804928476    2    1   11    8
 0.1353732215260493    2    1   11    9
 -0.1353732215260492    2    1   12    8
 -0.02506029804928481    2    1   12    9
 -0.08168271311971839    2    1   13   11
 -0.06183947561907471    2    1   13   12
 0.06183947561907462    2    1   14   11
 -0.08168271311971861    2    1   14   12
 0.04226795945282501    2    1   15    2
 -3.202826645444856e-15    2    1   15    3
 0.04407642833111645    2    1   15    4
 -2.595587898230238e-15    2    1   15    5
 1.745292484203538e-14    2    1   15    6
 0.01124693869333822    2    1   15    7
 0.1038340875035657    2    1   15   10
 -1.050473659488579e-15    2    1   15   15
 0.03640380571053432    2    1   16    8
 -0.01393847865225327    2    1   16    9
 -0.09941206650166018    2    1   16   13
 -0.03902479056774803    2    1   16   14
 0.489634427504518    2    2    1    1
 0.4766994116971092    2    2    2    2
 -0.02592937713626642    2    2    3    1
 -4.789979899516413e-15    2    2    3    2
 0.3381378086467652    2    2    3    3
 -3.445758090213412e-15    2    2    4    1
 0.07163877700557633    2    2    4    2
 5.771567359258639e-15    2    2    4    3
 0.2817968080900412    2    2    4    4
 -0.06286956488917261    2    2    5    1
 -4.321542251928189e-15    2    2    5    2
 -0.01446839786509946    2    2    5    3
 -1.9607667946999e-15    2    2    5    4
 0.3564263216372286    2    2    5    5
 -0.01350552926724364    2    2    6    1
 8.691879424707911e-14    2    2    6    2
 -0.1035241129844526    2    2    6    3
 3.594036065355451e-14    2    2    6    4
 0.03489251751690953    2    2    6    5
 0.4183220835236396    2    2    6    6
 1.453481969966191e-14    2    2    7    1
 0.06979796852468162    2    2    7    2
 1.241520843472755e-13    2    2    7    3
 0.03874338469897246    2    2    7    4
 -4.325291934164787e-14    2    2    7    5
 -8.161850684153435e-14    2    2    7    6
 0.3476386593514862    2    2    7    7
 0.4688864234501641    2    2    8    8
 0.4688864234501648    2    2    9    9
 0.004198604668155335    2    2   10    2
 -1.675162674009633e-15    2    2   10    3
 0.06267727889960369    2    2   10    4
 -3.052608751632137e-15    2    2   10    5
 -2.899799476333156e-15    2    2   10    6
 -0.006004029736279717    2    2   10    7
 0.4694948072878865    2    2   10   10
 0.4735390304131963    2    2   11   11
 0.4735390304131972    2    2   12   12
 0.004003028507787536    2    2   13    8
 -0.003653203202902929    2    2   13    9
 0.4534421314728851    2    2   13   13
 0.003653203202902935    2    2   14    8
 0.004003028507787458    2    2   14    9
 0.4534421314728854    2    2   14   14
 0.02823942231387691    2    2   15    1
 -0.01377347213963036    2    2   15    3
 -1.547229623591714e-15    2    2   15    4
 -0.01861086061585189    2    2   15    5
 -0.04168999042425077    2    2   15    6
 5.177814859654873e-14    2    2   15    7
 1.802435535381468e-15    2    2   15   10
 0.4752169253149846    2    2   15   15
 -0.006114190584250083    2    2   16   11
 -0.01000134824107367    2    2   16   12
 0.4586728847633659    2    2   16   16
 -0.09515839272086841    3    1    1    1
 -3.125224820586938e-15    3    1    2    1
 -0.02592937713626636    3    1    2    2
 0.05320946057416273    3    1    3    1
 1.235237642044629e-15    3    1    3    2
 -0.01449453713161036    3    1    3    3
 5.088571850284935e-15    3    1    4    1
 -0.02437059492189893    3    1    4    2
 -3.597702320476237e-15    3    1    4    3
 0.001129813866108959    3    1    4    4
 0.00941213068907993    3    1    5    1
 2.592637598592054e-15    3    1    5    2
 -0.01057856335436828    3    1    5    3
 -1.957365759129224e-15    3    1    5    4
 -0.03558677832376657    3    1    5    5
 -0.05597894254944907    3    1    6    1
 -7.14069343801281e-15    3    1    6    2
 0.03357881645919243    3    1    6    3
 -5.889391219934957e-15    3    1    6    4
 0.02491149314748147    3    1    6    5
 -0.03941845204073611    3    1    6    6
 6.6153606946746e-14    3    1    7    1
 -0.00553230221457533    3    1    7    2
 -3.960993560708869e-14    3    1    7    3
 -0.007966734691269453    3    1    7    4
 -2.84311911534254e-14    3    1    7    5
 2.761213220356579e-14    3    1    7    6
 -0.01705832617501663    3    1    7    7
 -0.08528963365132017    3    1    8    8
 -0.08528963365132022    3    1    9    9
 -0.0520005776205644    3    1   10    2
 2.494198118101906e-15    3    1   10    3
 -0.02504965271011349    3    1   10    4
 1.252877909608335e-15    3    1   10    5
 -3.180893678747909e-14    3    1   10    6
 -0.02455507544281051    3    1   10    7
 -0.04130246045429297    3    1   10   10
 -3.033579023706157e-15    3    1   11    9
 -0.02526720264931855    3    1   11   11
 3.182495534443043e-15    3    1   12    8
 -0.02526720264931856    3    1   12   12
 0.04337649101710853    3    1   13    8
 -0.03958581249324436    3    1   13    9
 1.117866473952751e-15    3    1   13   11
 -0.03847932222311867    3    1   13   13
 0.0395858124932443    3    1   14    8
 0.04337649101710861    3    1   14    9
 1.164630549550764e-15    3    1   14   12
 -0.03847932222311869    3    1   14   14
 0.01259685539885379    3    1   15    1
 -1.847116758291378e-15    3    1   15    2
 -0.03134786654521871    3    1   15    3
 -4.716135077897554e-15    3    1   15    4
 0.009763185945886772    3    1   15    5
 0.04371819278377233    3    1   15    6
 -5.293821297622807e-14    3    1   15    7
 -2.498996464044412e-15    3    1   15   10
 -0.03365188327465866    3    1   15   15
 -1.469651464178354e-15    3    1   16    8
 0.0253598354988189    3    1   16   11
 0.04148260389746034    3    1   16   12
 1.754039514056362e-15    3    1   16   13
 -0.06511287975617913    3    1   16   16
 -6.431088265945627e-15    3    2    1    1
 0.05523387789586325    3    2    2    1
 -4.750468568672239e-15    3    2    2    2
 1.231282114895391e-15    3    2    3    1
 0.05634665519684109    3    2    3    2
 6.76008231359898e-15    3    2    3    3
 0.002441125118653758    3    2    4    1
 2.472046027302231e-15    3    2    4    2
 -0.05015025540334405    3    2    4    3
 -6.471221093351379e-15    3    2    4    4
 -0.02216710822514905    3    2    5    2
 1.769372721314778e-15    3    2    5    3
 -0.004811682612981789    3    2    5    4
 -1.790494655114077e-15    3    2    5    5
 1.002331674723231e-14    3    2    6    1
 -0.04711991468465783    3    2    6    2
 9.443524210091825e-15    3    2    6    3
 -0.04143891162672441    3    2    6    4
 -4.479471338071888e-14    3    2    6    5
 -6.196773989996148e-14    3    2    6    6
 0.008972102730249069    3    2    7    1
 5.496475850952469e-14    3    2    7    2
 0.004617734629090236    3    2    7    3
 5.15569560472486e-14    3    2    7    4
 -0.03842474221196025    3    2    7    5
 -0.02385877159819457    3    2    7    6
 5.024518830499368e-14    3    2    7    7
 -6.38139997995535e-15    3    2    8    8
 -6.194611229363908e-15    3    2    9    9
 -0.02496692871917306    3    2   10    1
 -1.167368846748235e-15    3    2   10    2
 -0.03329424531364697    3    2   10    3
 -3.467882430931703e-15    3    2   10    4
 0.02743138474615772    3    2   10    5
 0.05490860546733707    3    2   10    6
 -6.723987299517633e-14    3    2   10    7
 -6.077779558094087e-15    3    2   10   10
 -0.009848331982727478    3    2   11    8
 0.05319970355252409    3    2   11    9
 -4.775490268269222e-15    3    2   11   11
 -0.05319970355252403    3    2   12    8
 -0.009848331982727523    3    2   12    9
 -5.031645933614486e-15    3    2   12   12
 -0.05719410471705236    3    2   13   11
 -0.04329990164529877    3    2   13   12
 -4.501792156769711e-15    3    2   13   13
 0.04329990164529875    3    2   14   11
 -0.05719410471705248    3    2   14   12
 -4.304987206815562e-15    3    2   14   14
 -1.160335770940756e-15    3    2   15    1
 -0.008912834005854641    3    2   15    2
 -1.658389002320281e-15    3    2   15    3
 0.01736109303037567    3    2   15    4
 -7.695308271224903e-15    3    2   15    6
 -0.009627971746996693    3    2   15    7
 0.06909910023487907    3    2   15   10
 -4.790332109405056e-15    3    2   15   15
 -0.01657304945867932    3    2   16    8
 0.006345575457669742    3    2   16    9
 1.431106770945656e-15    3    2   16   12
 -0.05162828691498311    3    2   16   13
 -0.02026698724943189    3    2   16   14
 -5.153050398126422e-15    3    2   16   16
 0.3522535650161584    3    3    1    1
 7.201400636774116e-15    3    3    2    1
 0.3381378086467649    3    3    2    2
 -0.01449453713161027    3    3    3    1
 6.227302225043916e-15    3    3    3    2
 0.3036054947097838    3    3    3    3
 -2.070056446217456e-15    3    3    4    1
 0.01865949718111011    3    3    4    2
 -1.39402649136034e-14    3    3    4    3
 0.2713051642593109    3    3    4    4
 -0.02929761515470054    3    3    5    1
 -3.59275616254992e-15    3    3    5    2
 -0.006965579824750071    3    3    5    3
 0.2767525616064122    3    3    5    5
 0.01005924991290811    3    3    6    1
 3.334075035438687e-14    3    3    6    2
 -0.04808135284667364    3    3    6    3
 -2.678609566939571e-15    3    3    6    4
 0.01239022694415932    3    3    6    5
 0.3260783976050149    3    3    6    6
 -1.253096190289765e-14    3    3    7    1
 0.02904490610138901    3    3    7    2
 6.398791279818996e-14    3    3    7    3
 0.01265864989071641    3    3    7    4
 -2.266546044733229e-14    3    3    7    5
 -5.461400310028942e-14    3    3    7    6
 0.2755426959263406    3    3    7    7
 0.3418470700576443    3    3    8    8
 0.3418470700576449    3    3    9    9
 -1.046642754971075e-15    3    3   10    1
 -0.005997848345546042    3    3   10    2
 -1.20565651925594e-15    3    3   10    3
 0.03087556897441196    3    3   10    4
 -1.230724427695535e-15    3    3   10    5
 8.28390134167247e-15    3    3   10    6
 -0.004145592198006109    3    3   10    7
 0.3540471920133958    3    3   10   10
 -1.195904326011392e-15    3    3   11    8
 6.724361301409668e-15    3    3   11    9
 0.3366861210000335    3    3   11   11
 -6.609807678610984e-15    3    3   12    8
 -1.454002664825459e-15    3    3   12    9
 0.3366861210000341    3    3   12   12
 -0.003878248088946005    3    3   13    8
 0.003539327364925513    3    3   13    9
 -5.758974582482442e-15    3    3   13   11
 -4.248192797347919e-15    3    3   13   12
 0.3439913664625683    3    3   13   13
 -0.003539327364925496    3    3   14    8
 -0.003878248088946041    3    3   14    9
 4.208747553558864e-15    3    3   14   11
 -5.623732576061639e-15    3    3   14   12
 0.3439913664625685    3    3   14   14
 -0.01050720127985915    3    3   15    1
 -1.360386358745993e-15    3    3   15    2
 -0.01344918912245211    3    3   15    3
 -1.609555862947852e-15    3    3   15    4
 0.002971202632246793    3    3   15    5
 -0.01451083264082477    3    3   15    6
 1.999107677575427e-14    3    3   15    7
 1.075823820189855e-14    3    3   15   10
 0.3549066616851976    3    3   15   15
 0.0006348125043112207    3    3   16   11
 0.001038400886579982    3    3   16   12
 -6.726569466844492e-15    3    3   16   13
 -2.563586954466671e-15    3    3   16   14
 0.3421333127412439    3    3   16   16
 -1.190410969624719e-14    4    1    1    1
 0.04861667581594826    4    1    2    1
 -3.515196547276555e-15    4    1    2    2
 5.029499466323333e-15    4    1    3    1
 0.002441125118653946    4    1    3    2
 -3.483188950989848e-15    4    1    3    3
 0.02245422768950019    4    1    4    1
 -1.650666467099148e-15    4    1    4    2
 -0.001635608914038123    4    1    4    3
 -1.495609420773075e-14    4    1    4    4
 -0.01950055125917177    4    1    5    2
 -0.008866329844176197    4    1    5    4
 -2.267965377119515e-15    4    1    5    5
 1.565399067531983e-14    4    1    6    1
 -0.01828669674190339    4    1    6    2
 -0.001375992749501253    4    1    6    4
 -2.344569344563593e-14    4    1    6    5
 -2.427209084973709e-14    4    1    6    6
 0.01774773347321916    4    1    7    1
 1.9476208080078e-14    4    1    7    2
 -0.002862377044571023    4    1    7    3
 1.59711007179928e-14    4    1    7    4
 -0.0217900889063871    4    1    7    5
 -0.007717552609910232    4    1    7    6
 -4.800525208078542e-15    4    1    7    7
 -1.029780204247115e-14    4    1    8    8
 -1.017229154504657e-14    4    1    9    9
 0.02743222695811081    4    1   10    1
 -6.445039031141182e-15    4    1   10    2
 -0.0212785767052232    4    1   10    3
 1.674193556803642e-15    4    1   10    4
 -0.005220668506146673    4    1   10    5
 0.02459071501526916    4    1   10    6
 -4.179134801687688e-14    4    1   10    7
 -1.115557236505856e-14    4    1   10   10
 -0.007804090680179328    4    1   11    8
 0.04215691666474189    4    1   11    9
 -3.20541366458078e-15    4    1   11   11
 -0.04215691666474187    4    1   12    8
 -0.007804090680179334    4    1   12    9
 -3.265808638786829e-15    4    1   12   12
 4.908151806587689e-15    4    1   13    8
 -4.438455775573238e-15    4    1   13    9
 -0.0153915390529177    4    1   13   11
 -0.01165246191820206    4    1   13   12
 -5.252267523310222e-15    4    1   13   13
 4.543177260047651e-15    4    1   14    8
 4.978566239653563e-15    4    1   14    9
 0.01165246191820203    4    1   14   11
 -0.01539153905291776    4    1   14   12
 -5.204525643934123e-15    4    1   14   14
 1.719606952411794e-15    4    1   15    1
 0.02458909737449541    4    1   15    2
 -4.867363041900939e-15    4    1   15    3
 0.01386187150569479    4    1   15    4
 1.75027646202288e-14    4    1   15    6
 0.009753321755483263    4    1   15    7
 0.02009470501288625    4    1   15   10
 -5.688832858054066e-15    4    1   15   15
 0.02351441996253137    4    1   16    8
 -0.009003323533644168    4    1   16    9
 2.771659011211045e-15    4    1   16   11
 4.466404604257294e-15    4    1   16   12
 -0.02524356129250302    4    1   16   13
 -0.009909508244731937    4    1   16   14
 -8.499200080100494e-15    4    1   16   16
 0.09570210529499254    4    2    1    1
 4.660621663107475e-15    4    2    2    1
 0.0716387770055761    4    2    2    2
 -0.02437059492189912    4    2    3    1
 2.645833540189193e-15    4    2    3    2
 0.01865949718110985    4    2    3    3
 -1.926336353913257e-15    4    2    4    1
 0.03373685841238455    4    2    4    2
 -1.775795700361778e-15    4    2    4    3
 0.003090864262526868    4    2    4    4
 -0.01889993292051353    4    2    5    1
 -3.622654633543053e-15    4    2    5    2
 0.000570812814192376    4    2    5    3
 -1.38614073397292e-15    4    2    5    4
 0.04850819992103058    4    2    5    5
 0.008680107437336914    4    2    6    1
 2.169244106558914e-14    4    2    6    2
 -0.03683014800218304    4    2    6    3
 7.791393392868226e-15    4    2    6    4
 0.00148585150306031    4    2    6    5
 0.05483719311121096    4    2    6    6
 -1.130953179294944e-14    4    2    7    1
 0.02095933068967676    4    2    7    2
 4.629973648176586e-14    4    2    7    3
 0.01502990498508714    4    2    7    4
 -3.208188101143829e-15    4    2    7    5
 -1.712800021454539e-14    4    2    7    6
 0.03846608592476577    4    2    7    7
 0.08716322187015008    4    2    8    8
 0.08716322187015021    4    2    9    9
 -3.71629693259908e-15    4    2   10    1
 0.0244333259155991    4    2   10    2
 -2.66072842331154e-15    4    2   10    3
 0.02311143487022309    4    2   10    4
 2.629809339578412e-15    4    2   10    5
 1.815384579753152e-14    4    2   10    6
 0.008394516713759634    4    2   10    7
 0.06544374096241366    4    2   10   10
 4.733591474162116e-15    4    2   11    9
 0.07022988101429187    4    2   11   11
 -4.750387263080768e-15    4    2   12    8
 0.07022988101429196    4    2   12   12
 -0.01184621512852606    4    2   13    8
 0.01081097248386247    4    2   13    9
 -5.271756516076494e-15    4    2   13   11
 -3.972106117441588e-15    4    2   13   12
 0.06131379179613971    4    2   13   13
 -0.01081097248386244    4    2   14    8
 -0.0118462151285261    4    2   14    9
 3.996492564373982e-15    4    2   14   11
 -5.289425085179104e-15    4    2   14   12
 0.06131379179613976    4    2   14   14
 0.01488127637606927    4    2   15    1
 0.011963005428674    4    2   15    3
 3.56286542679528e-15    4    2   15    4
 -0.01426602442846832    4    2   15    5
 -0.02864508829008938    4    2   15    6
 3.345963367678392e-14    4    2   15    7
 6.226376338328674e-15    4    2   15   10
 0.06475892238498518    4    2   15   15
 -1.882927131160492e-15    4    2   16    8
 -0.01262666322997747    4    2   16   11
 -0.02065419033732209    4    2   16   12
 -4.329109693153553e-15    4    2   16   13
 -1.661425213189253e-15    4    2   16   14
 0.07469133994207675    4    2   16   16
 1.016271051597734e-14    4    3    1    1
 -0.05302508840539515    4    3    2    1
 7.057352709605591e-15    4    3    2    2
 -3.034934378787832e-15    4    3    3    1
 -0.05015025540334386    4    3    3    2
 -7.703956139853135e-15    4    3    3    3
 -0.001635608914035895    4    3    4    1
 -1.192020966406119e-15    4    3    4    2
 0.08211700931785446    4    3    4    3
 1.066539656045973e-13    4    3    4    4
 0.01464594436529513    4    3    5    2
 -3.315296623222703e-15    4    3    5    3
 0.00354625460337646    4    3    5    4
 3.453500039220087e-15    4    3    5    5
 -8.486106588449283e-15    4    3    6    1
 0.01755760702214194    4    3    6    2
 -6.611883257631634e-15    4    3    6    3
 0.05520676253360998    4    3    6    4
 4.520662989685999e-14    4    3    6    5
 2.07507114331187e-14    4    3    6    6
 -0.007538113434069149    4    3    7    1
 -1.897787218217263e-14    4    3    7    2
 -0.001279162991342831    4    3    7    3
 -1.621840803824557e-13    4    3    7    4
 0.03740759366471665    4    3    7    5
 0.005672541513928406    4    3    7    6
 8.256636722760681e-14    4    3    7    7
 8.433179364025883e-15    4    3    8    8
 8.27394390882285e-15    4    3    9    9
 -0.0006826551180090003    4    3   10    1
 1.07161304774414e-15    4    3   10    2
 0.02590822694427002    4    3   10    3
 -2.824989916850839e-14    4    3   10    4
 -0.0122609792707806    4    3   10    5
 -0.05550623947238711    4    3   10    6
 9.270396722523505e-14    4    3   10    7
 1.737884283957802e-14    4    3   10   10
 0.009029724345414261    4    3   11    8
 -0.04877766703839401    4    3   11    9
 6.316875591719998e-15    4    3   11   11
 0.04877766703839398    4    3   12    8
 0.009029724345414289    4    3   12    9
 6.504661163964459e-15    4    3   12   12
 -1.184801500220499e-15    4    3   13    8
 1.05405798887287e-15    4    3   13    9
 0.04032650992060477    4    3   13   11
 0.03052996321734091    4    3   13   12
 7.775929338829604e-15    4    3   13   13
 -1.200767210127225e-15    4    3   14    8
 -1.365938432391558e-15    4    3   14    9
 -0.03052996321734087    4    3   14   11
 0.04032650992060488    4    3   14   12
 7.652151728818465e-15    4    3   14   14
 -1.412803558344633e-15    4    3   15    1
 0.006981540300677253    4    3   15    2
 2.801503334627738e-15    4    3   15    3
 -0.0117230185491343    4    3   15    4
 6.378543434779486e-15    4    3   15    6
 0.00767991699157904    4    3   15    7
 -0.06214918288317953    4    3   15   10
 9.952924549686754e-15    4    3   15   15
 -0.001589652509589334    4    3   16    8
 0.0006086544287592982    4    3   16    9
 0.04829833594695963    4    3   16   13
 0.01895979543961456    4    3   16   14
 9.076771293851948e-15    4    3   16   16
 0.2774699973297852    4    4    1    1
 -9.610703282231562e-15    4    4    2    1
 0.2817968080900375    4    4    2    2
 0.00112981386610379    4    4    3    1
 -4.773755956120274e-15    4    4    3    2
 0.2713051642593041    4    4    3    3
 -8.33366342837368e-15    4    4    4    1
 0.003090864262507289    4    4    4    2
 5.431671572275444e-14    4    4    4    3
 0.267375583998438    4    4    4    4
 -0.02022352386186774    4    4    5    1
 3.703866884047348e-15    4    4    5    2
 -0.006475900362525197    4    4    5    3
 -1.225410315509352e-14    4    4    5    4
 0.2323008800266343    4    4    5    5
 -0.001732332586473765    4    4    6    1
 2.8152516113662e-14    4    4    6    2
 -0.01268228240088984    4    4    6    3
 3.51383990920254e-14    4    4    6    4
 0.01233023155582868    4    4    6    5
 0.2740538950183355    4    4    6    6
 1.355135831530658e-15    4    4    7    1
 0.02184847800464706    4    4    7    2
 -2.479970464391679e-14    4    4    7    3
 0.001254461780468213    4    4    7    4
 2.362184782832349e-15    4    4    7    5
 -6.188551418614939e-14    4    4    7    6
 0.2391284800685934    4    4    7    7
 0.2708297425006913    4    4    8    8
 0.2708297425006918    4    4    9    9
 1.050674250907569e-15    4    4   10    1
 -0.006012588888192795    4    4   10    2
 -1.326078059870202e-14    4    4   10    3
 0.01075410477229886    4    4   10    4
 -1.133709081594352e-14    4    4   10    5
 -6.248453635017204e-15    4    4   10    6
 -0.001598809310591642    4    4   10    7
 0.2902794346118777    4    4   10   10
 1.691234461902611e-15    4    4   11    8
 -8.925505017268065e-15    4    4   11    9
 0.2777848290128552    4    4   11   11
 9.048590422781178e-15    4    4   12    8
 1.479124639442766e-15    4    4   12    9
 0.2777848290128557    4    4   12   12
 0.004975848489340622    4    4   13    8
 -0.004541008289862416    4    4   13    9
 6.408837903397634e-15    4    4   13   11
 4.910509016090194e-15    4    4   13   12
 0.2761730903740028    4    4   13   13
 0.004541008289862423    4    4   14    8
 0.004975848489340604    4    4   14    9
 -4.9948156518304e-15    4    4   14   11
 6.513716583147846e-15    4    4   14   12
 0.2761730903740029    4    4   14   14
 0.001614201474718621    4    4   15    1
 -0.0139006717188149    4    4   15    3
 4.703555640675007e-15    4    4   15    4
 0.0007372796473277093    4    4   15    5
 -0.001393108334706044    4    4   15    6
 6.856123010392634e-15    4    4   15    7
 -1.764925205596719e-14    4    4   15   10
 0.2916609891596323    4    4   15   15
 -8.373354606667872e-15    4    4   16    8
 3.242620789513368e-15    4    4   16    9
 0.002721641681011162    4    4   16   11
 0.004451952529797031    4    4   16   12
 2.380135607448549e-14    4    4   16   13
 9.401105000588192e-15    4    4   16   14
 0.2747367250343371    4    4   16   16
 -0.0677238098964863    5    1    1    1
 -2.981567290106617e-15    5    1    2    1
 -0.06286956488917257    5    1    2    2
 0.009412130689079944    5    1    3    1
 -0.02929761515470005    5    1    3    3
 -0.01889993292051349    5    1    4    2
 -0.02022352386186901    5    1    4    4
 0.03277884401767329    5    1    5    1
 2.85886282056674e-15    5    1    5    2
 0.0002336388789851021    5    1    5    3
 -0.01671921979512988    5    1    5    5
 -0.003085955991795301    5    1    6    1
 -3.730335809486076e-14    5    1    6    2
 0.02842462391455635    5    1    6    3
 -1.019048643730624e-14    5    1    6    4
 -0.01204034261599472    5    1    6    5
 -0.05820022783506495    5    1    6    6
 3.192038012819274e-15    5    1    7    1
 -0.03091889935798115    5    1    7    2
 -3.419141212920693e-14    5    1    7    3
 -0.01184552719852678    5    1    7    4
 1.689238618737519e-14    5    1    7    5
 4.140653445515341e-14    5    1    7    6
 -0.02230440182027583    5    1    7    7
 -0.04760820324357784    5    1    8    8
 -0.04760820324357793    5    1    9    9
 -1.505831413804267e-15    5    1   10    1
 -0.004351522818853227    5    1   10    2
 1.309118357613241e-15    5    1   10    3
 -0.01495603671014177    5    1   10    4
 1.926704973632668e-15    5    1   10    5
 -7.727070117135295e-15    5    1   10    6
 -0.003520948633181246    5    1   10    7
 -0.07211466548696761    5    1   10   10
 -2.402115680674671e-15    5    1   11    9
 -0.05219690669222123    5    1   11   11
 2.373504487417967e-15    5    1   12    8
 -0.05219690669222134    5    1   12   12
 -0.003448735302695228    5    1   13    8
 0.003147349770120391    5    1   13    9
 -0.04692998386810956    5    1   13   13
 -0.003147349770120391    5    1   14    8
 -0.003448735302695227    5    1   14    9
 -0.0469299838681096    5    1   14   14
 -0.007983117983390254    5    1   15    1
 -1.566613022508753e-15    5    1   15    2
 0.002937877229811238    5    1   15    3
 0.003538473746129154    5    1   15    5
 0.01319289447236614    5    1   15    6
 -1.674757945779225e-14    5    1   15    7
 -1.733967445609022e-15    5    1   15   10
 -0.06662443524344143    5    1   15   15
 -1.442011559991988e-15    5    1   16    8
 -9.963665957751329e-05    5    1   16   11
 -0.000162981659842088    5    1   16   12
 1.360347967343598e-15    5    1   16   13
 -0.04683887641905415    5    1   16   16
 -5.611573597269002e-15    5    2    1    1
 -0.05915228731771634    5    2    2    1
 -4.305240934520482e-15    5    2    2    2
 2.5880487324446e-15    5    2    3    1
 -0.02216710822514902    5    2    3    2
 -3.52814505431867e-15    5    2    3    3
 -0.01950055125917169    5    2    4    1
 -3.373434124058564e-15    5    2    4    2
 0.01464594436529675    5    2    4    3
 4.145645107555832e-15    5    2    4    4
 2.846845957117584e-15    5    2    5    1
 0.03446802198205035    5    2    5    2
 -1.208389287791e-15    5    2    5    3
 0.01142616834703479    5    2    5    4
 -4.657905432929478e-15    5    2    5    5
 -3.469813354106299e-14    5    2    6    1
 0.03905418120193298    5    2    6    2
 -5.02196344241069e-15    5    2    6    3
 0.01469944739042045    5    2    6    4
 3.065458265333142e-14    5    2    6    5
 4.806565078535599e-14    5    2    6    6
 -0.0274493459089653    5    2    7    1
 -4.820395560763456e-14    5    2    7    2
 -0.005687299187180844    5    2    7    3
 -2.386984926372457e-14    5    2    7    4