 &FCI NORB=  10,NELEC=14,MS2=0,
  ORBSYM=0,5,0,5,6,7,0,2,3,5
  ISYM=1,
 &END
 2.306865664447673    1    1    1    1
 2.306351160735387    1    1    2    2
 -0.1914404665989885    1    1    3    1
 0.7868840776031893    1    1    3    3
 -0.1915180728917875    1    1    4    2
 0.6671458921502075    1    1    4    4
 0.6879790991819601    1    1    5    5
 0.6879790991819601    1    1    6    6
 0.08358407750287108    1    1    7    1
 0.06550121646318473    1    1    7    3
 0.685405684313809    1    1    7    7
 0.7276833321892708    1    1    8    8
 0.7276833321892708    1    1    9    9
 -0.1312665818548979    1    1   10    2
 0.04917036956781815    1    1   10    4
 0.895803173576865    1    1   10   10
 1.824933981817309    2    1    2    1
 -0.1983666215425545    2    1    3    2
 -0.1846139501174895    2    1    4    1
 0.1721198434090955    2    1    4    3
 0.06855659345356627    2    1    7    2
 -0.2521981419439316    2    1    7    4
 0.2753528636451877    2    1    8    6
 0.2753528636451877    2    1    9    5
 -0.1496126043669849    2    1   10    1
 0.2263328771835194    2    1   10    3
 0.1933359536734653    2    1   10    7
 2.306351160735387    2    2    1    1
 2.305838106377283    2    2    2    2
 -0.1913035533063532    2    2    3    1
 0.7869699869626159    2    2    3    3
 -0.191469344379048    2    2    4    2
 0.6670820515706288    2    2    4    4
 0.6880230406586392    2    2    5    5
 0.6880230406586392    2    2    6    6
 0.08364308789204299    2    2    7    1
 0.06555911997087244    2    2    7    3
 0.6853423268081701    2    2    7    7
 0.7277125780396623    2    2    8    8
 0.7277125780396623    2    2    9    9
 -0.1310504915873259    2    2   10    2
 0.04924693669100551    2    2   10    4
 0.895877713136209    2    2   10   10
 -0.1914404665989885    3    1    1    1
 -0.1913035533063533    3    1    2    2
 0.03094823078981722    3    1    3    1
 0.002022297985084841    3    1    3    3
 0.02581901859912856    3    1    4    2
 -0.01256365236949505    3    1    4    4
 -0.001513885475076938    3    1    5    5
 -0.001513885475076938    3    1    6    6
 -0.006565206510447344    3    1    7    1
 0.00723515408918858    3    1    7    3
 -0.008976129056388281    3    1    7    7
 -0.005948816217118146    3    1    8    8
 -0.005948816217118146    3    1    9    9
 0.02801217340663277    3    1   10    2
 0.002876419332623155    3    1   10    4
 -0.005516368287878413    3    1   10   10
 -0.1983666215425545    3    2    2    1
 0.03068704056892578    3    2    3    2
 0.02601486006194379    3    2    4    1
 -0.008300134306770277    3    2    4    3
 -0.007024222998447773    3    2    7    2
 0.0138780026892578    3    2    7    4
 -0.008840317651624883    3    2    8    6
 -0.008840317651624883    3    2    9    5
 0.02753898357225307    3    2   10    1
 -0.004995123617625817    3    2   10    3
 -0.006826296324286099    3    2   10    7
 0.7868840776031893    3    3    1    1
 0.786969986962616    3    3    2    2
 0.002022297985084839    3    3    3    1
 0.7472181500302764    3    3    3    3
 -0.01827191418731468    3    3    4    2
 0.5119501394611867    3    3    4    4
 0.617175755462871    3    3    5    5
 0.617175755462871    3    3    6    6
 0.02549703896179412    3    3    7    1
 0.1088646551953437    3    3    7    3
 0.5424367785711786    3    3    7    7
 0.596036135160851    3    3    8    8
 0.596036135160851    3    3    9    9
 0.02213387659981862    3    3   10    2
 0.07353187639815151    3    3   10    4
 0.7241338005117459    3    3   10   10
 -0.1846139501174896    4    1    2    1
 0.02601486006194381    4    1    3    2
 0.02871558478701917    4    1    4    1
 -0.00482871361812382    4    1    4    3
 -0.01478375452012274    4    1    7    2
 -0.002323559565355368    4    1    7    4
 -0.002746198409439489    4    1    8    6
 -0.002746198409439489    4    1    9    5
 0.01482120306052012    4    1   10    1
 -0.01144831357445154    4    1   10    3
 -0.001708300603953625    4    1   10    7
 -0.1915180728917874    4    2    1    1
 -0.1914693443790481    4    2    2    2
 0.02581901859912857    4    2    3    1
 -0.01827191418731469    4    2    3    3
 0.02891148239791232    4    2    4    2
 -0.004910151131338315    4    2    4    4
 -0.007728678125729167    4    2    5    5
 -0.007728678125729167    4    2    6    6
 -0.01521576171553103    4    2    7    1
 -0.004775180513357445    4    2    7    3
 -0.003724264940384076    4    2    7    7
 -0.007743252746406052    4    2    8    8
 -0.007743252746406052    4    2    9    9
 0.01429094096865748    4    2   10    2
 -0.007462147318434152    4    2   10    4
 -0.02094711835376013    4    2   10   10
 0.1721198434090955    4    3    2    1
 -0.008300134306770264    4    3    3    2
 -0.004828713618123803    4    3    4    1
 0.0564762674243587    4    3    4    3
 -0.0007778777746981589    4    3    7    2
 -0.09308563583870663    4    3    7    4
 0.09669234964523098    4    3    8    6
 0.09669234964523098    4    3    9    5
 -0.008134532441245318    4    3   10    1
 0.05920441514899723    4    3   10    3
 0.0548145780796546    4    3   10    7
 0.6671458921502075    4    4    1    1
 0.6670820515706288    4    4    2    2
 -0.01256365236949504    4    4    3    1
 0.5119501394611867    4    4    3    3
 -0.004910151131338294    4    4    4    2
 0.5453708953383133    4    4    4    4
 0.5100096682483711    4    4    5    5
 0.5100096682483711    4    4    6    6
 -0.004206978893553493    4    4    7    1
 -0.001135194731309574    4    4    7    3
 0.5570968878592955    4    4    7    7
 0.5358793067768525    4    4    8    8
 0.5358793067768525    4    4    9    9
 -0.01622351951586647    4    4   10    2
 -0.01981441502460457    4    4   10    4
 0.5594683590134947    4    4   10   10
 0.009770974882974615    5    1    5    1
 0.0166207301027445    5    1    5    3
 -0.004861044031656163    5    1    7    5
 0.011887726830461    5    1    9    2
 0.01560858562332721    5    1    9    4
 0.01111747260367992    5    1   10    9
 0.009269761552478288    5    2    5    2
 0.01128142281405521    5    2    5    4
 0.01131006675479578    5    2    9    1
 0.01143682543274823    5    2    9    3
 -0.0070266882478196    5    2    9    7
 0.008593671482768201    5    2   10    5
 0.0166207301027445    5    3    5    1
 0.1049701474299303    5    3    5    3
 -0.01384511582678497    5    3    7    5
 0.01884790826320366    5    3    9    2
 0.07410127916740186    5    3    9    4
 0.06162918822020369    5    3   10    9
 0.01128142281405521    5    4    5    2
 0.05087367798540701    5    4    5    4
 0.01346917618774717    5    4    9    1
 0.0429261294026128    5    4    9    3
 -0.0391314957826991    5    4    9    7
 0.02383572756838221    5    4   10    5
 0.6879790991819602    5    5    1    1
 0.6880230406586392    5    5    2    2
 -0.001513885475076921    5    5    3    1
 0.6171757554628708    5    5    3    3
 -0.007728678125729149    5    5    4    2
 0.5100096682483711    5    5    4    4
 0.5880333086470346    5    5    5    5
 0.5400521987323088    5    5    6    6
 0.008948140978262881    5    5    7    1
 0.04695975965789839    5    5    7    3
 0.5177651312330858    5    5    7    7
 0.5413239563182578    5    5    8    8
 0.5870791941704951    5    5    9    9
 0.006439462220086811    5    5   10    2
 0.04167203528547805    5    5   10    4
 0.619958692160417    5    5   10   10
 0.009770974882974615    6    1    6    1
 0.0166207301027445    6    1    6    3
 -0.004861044031656163    6    1    7    6
 0.011887726830461    6    1    8    2
 0.01560858562332721    6    1    8    4
 0.01111747260367992    6    1   10    8
 0.009269761552478288    6    2    6    2
 0.01128142281405521    6    2    6    4
 0.01131006675479578    6    2    8    1
 0.01143682543274823    6    2    8    3
 -0.0070266882478196    6    2    8    7
 0.008593671482768201    6    2   10    6
 0.0166207301027445    6    3    6    1
 0.1049701474299303    6    3    6    3
 -0.01384511582678497    6    3    7    6
 0.01884790826320366    6    3    8    2
 0.07410127916740186    6    3    8    4
 0.06162918822020369    6    3   10    8
 0.01128142281405521    6    4    6    2
 0.05087367798540701    6    4    6    4
 0.01346917618774717    6    4    8    1
 0.0429261294026128    6    4    8    3
 -0.0391314957826991    6    4    8    7
 0.02383572756838221    6    4   10    6
 0.02399055495736286    6    5    6    5
 0.02287761892611858    6    5    9    8
 0.6879790991819602    6    6    1    1
 0.6880230406586392    6    6    2    2
 -0.001513885475076921    6    6    3    1
 0.6171757554628708    6    6    3    3
 -0.007728678125729149    6    6    4    2
 0.5100096682483711    6    6    4    4
 0.5400521987323088    6    6    5    5
 0.5880333086470346    6    6    6    6
 0.008948140978262881    6    6    7    1
 0.04695975965789839    6    6    7    3
 0.5177651312330858    6    6    7    7
 0.5870791941704951    6    6    8    8
 0.5413239563182577    6    6    9    9
 0.006439462220086811    6    6   10    2
 0.04167203528547805    6    6   10    4
 0.619958692160417    6    6   10   10
 0.08358407750287104    7    1    1    1
 0.08364308789204296    7    1    2    2
 -0.006565206510447341    7    1    3    1
 0.02549703896179411    7    1    3    3
 -0.01521576171553103    7    1    4    2
 -0.004206978893553494    7    1    4    4
 0.008948140978262886    7    1    5    5
 0.008948140978262886    7    1    6    6
 0.01426986282763672    7    1    7    1
 0.01236104591110752    7    1    7    3
 -0.002700028103112925    7    1    7    7
 0.005357766510219427    7    1    8    8
 0.005357766510219427    7    1    9    9
 0.006121197116250082    7    1   10    2
 0.0122298230153297    7    1   10    4
 0.02288005252328563    7    1   10   10
 0.06855659345356624    7    2    2    1
 -0.007024222998447772    7    2    3    2
 -0.01478375452012274    7    2    4    1
 -0.0007778777746981514    7    2    4    3
 0.01331565198804719    7    2    7    2
 0.01487213164452316    7    2    7    4
 -0.003782084633126136    7    2    8    6
 -0.003782084633126136    7    2    9    5
 0.005030914003648137    7    2   10    1
 0.01092341405884509    7    2   10    3
 -0.003404913988231193    7    2   10    7
 0.06550121646318481    7    3    1    1
 0.06555911997087245    7    3    2    2
 0.007235154089188579    7    3    3    1
 0.1088646551953436    7    3    3    3
 -0.004775180513357452    7    3    4    2
 -0.001135194731309597    7    3    4    4
 0.04695975965789836    7    3    5    5
 0.04695975965789836    7    3    6    6
 0.01236104591110752    7    3    7    1
 0.05164607770549174    7    3    7    3
 0.01617485682672816    7    3    7    7
 0.02922830918125499    7    3    8    8
 0.02922830918125499    7    3    9    9
 0.01678715243297146    7    3   10    2
 0.02972206255748017    7    3   10    4
 0.08753998592074483    7    3   10   10
 -0.2521981419439315    7    4    2    1
 0.01387800268925779    7    4    3    2
 -0.002323559565355373    7    4    4    1
 -0.09308563583870666    7    4    4    3
 0.01487213164452316    7    4    7    2
 0.2235584888602656    7    4    7    4
 -0.1574223354546934    7    4    8    6
 -0.1574223354546934    7    4    9    5
 0.02624511337849732    7    4   10    1
 -0.05680773862047812    7    4   10    3
 -0.1243795456013846    7    4   10    7
 -0.004861044031656164    7    5    5    1
 -0.01384511582678496    7    5    5    3
 0.02806054367652977    7    5    7    5
 -0.006218204528220278    7    5    9    2
 -0.03742988554774827    7    5    9    4
 0.0004407744591211567    7    5   10    9
 -0.004861044031656164    7    6    6    1
 -0.01384511582678496    7    6    6    3
 0.02806054367652977    7    6    7    6
 -0.006218204528220278    7    6    8    2
 -0.03742988554774827    7    6    8    4
 0.0004407744591211567    7    6   10    8
 0.685405684313809    7    7    1    1
 0.6853423268081701    7    7    2    2
 -0.008976129056388261    7    7    3    1
 0.5424367785711787    7    7    3    3
 -0.003724264940384057    7    7    4    2
 0.5570968878592955    7    7    4    4
 0.5177651312330858    7    7    5    5
 0.5177651312330858    7    7    6    6
 -0.00270002810311294    7    7    7    1
 0.01617485682672816    7    7    7    3
 0.5849179963615131    7    7    7    7
 0.5405366748405798    7    7    8    8
 0.5405366748405798    7    7    9    9
 -0.01211853702367476    7    7   10    2
 -0.02745131919604391    7    7   10    4
 0.5940888591771084    7    7   10   10
 0.01131006675479579    8    1    6    2
 0.01346917618774717    8    1    6    4
 0.01381736176858661    8    1    8    1
 0.01344110584320159    8    1    8    3
 -0.008608741470998741    8    1    8    7
 0.009888559692370938    8    1   10    6
 0.011887726830461    8    2    6    1
 0.01884790826320366    8    2    6    3
 -0.00621820452822028    8    2    7    6
 0.0144985042960206    8    2    8    2
 0.01853260557412483    8    2    8    4
 0.01260878052881994    8    2   10    8
 0.01143682543274823    8    3    6    2
 0.0429261294026128    8    3    6    4
 0.01344110584320159    8    3    8    1
 0.04424917100755776    8    3    8    3
 -0.02499685655616158    8    3    8    7
 0.03401542903824797    8    3   10    6
 0.01560858562332721    8    4    6    1
 0.07410127916740186    8    4    6    3
 -0.03742988554774826    8    4    7    6
 0.01853260557412483    8    4    8    2
 0.08236493094061512    8    4    8    4
 0.03605239402990021    8    4   10    8
 0.01897993872872497    8    5    8    5
 0.01897993872872497    8    5    9    6
 0.2753528636451878    8    6    2    1
 -0.00884031765162489    8    6    3    2
 -0.002746198409439494    8    6    4    1
 0.096692349645231    8    6    4    3
 -0.00378208463312614    8    6    7    2
 -0.1574223354546934    8    6    7    4
 0.1876617882079635    8    6    8    6
 0.1497019107505132    8    6    9    5
 -0.009911309013135772    8    6   10    1
 0.1021480423468312    8    6   10    3
 0.09213269829446433    8    6   10    7
 -0.0070266882478196    8    7    6    2
 -0.0391314957826991    8    7    6    4
 -0.008608741470998741    8    7    8    1
 -0.02499685655616159    8    7    8    3
 0.0381695745788144    8    7    8    7
 -0.004415767028058419    8    7   10    6
 0.7276833321892711    8    8    1    1
 0.7277125780396624    8    8    2    2
 -0.005948816217118162    8    8    3    1
 0.5960361351608509    8    8    3    3
 -0.00774325274640608    8    8    4    2
 0.5358793067768525    8    8    4    4
 0.5413239563182577    8    8    5    5
 0.587079194170495    8    8    6    6
 0.005357766510219426    8    8    7    1
 0.029228309181255    8    8    7    3
 0.5405366748405797    8    8    7    7
 0.6047495644207171    8    8    8    8
 0.5546128382886496    8    8    9    9
 -0.0003361779982836193    8    8   10    2
 0.02848138143235685    8    8   10    4
 0.6213509929541188    8    8   10   10
 0.01131006675479579    9    1    5    2
 0.01346917618774717    9    1    5    4
 0.01381736176858661    9    1    9    1
 0.01344110584320159    9    1    9    3
 -0.008608741470998741    9    1    9    7
 0.009888559692370938    9    1   10    5
 0.011887726830461    9    2    5    1
 0.01884790826320366    9    2    5    3
 -0.00621820452822028    9    2    7    5
 0.0144985042960206    9    2    9    2
 0.01853260557412483    9    2    9    4
 0.01260878052881994    9    2   10    9
 0.01143682543274823    9    3    5    2
 0.0429261294026128    9    3    5    4
 0.01344110584320159    9    3    9    1
 0.04424917100755776    9    3    9    3
 -0.02499685655616158    9    3    9    7
 0.03401542903824797    9    3   10    5
 0.01560858562332721    9    4    5    1
 0.07410127916740186    9    4    5    3
 -0.03742988554774826    9    4    7    5
 0.01853260557412483    9    4    9    2
 0.08236493094061512    9    4    9    4
 0.03605239402990021    9    4   10    9
 0.2753528636451878    9    5    2    1
 -0.00884031765162489    9    5    3    2
 -0.002746198409439494    9    5    4    1
 0.096692349645231    9    5    4    3
 -0.00378208463312614    9    5    7    2
 -0.1574223354546934    9    5    7    4
 0.1497019107505132    9    5    8    6
 0.1876617882079635    9    5    9    5
 -0.009911309013135772    9    5   10    1
 0.1021480423468312    9    5   10    3
 0.09213269829446433    9    5   10    7
 0.01897993872872497    9    6    8    5
 0.01897993872872497    9    6    9    6
 -0.0070266882478196    9    7    5    2
 -0.0391314957826991    9    7    5    4
 -0.008608741470998741    9    7    9    1
 -0.02499685655616159    9    7    9    3
 0.0381695745788144    9    7    9    7
 -0.004415767028058419    9    7   10    5
 0.02287761892611858    9    8    6    5
 0.02506836306603343    9    8    9    8
 0.7276833321892711    9    9    1    1
 0.7277125780396624    9    9    2    2
 -0.005948816217118162    9    9    3    1
 0.5960361351608509    9    9    3    3
 -0.00774325274640608    9    9    4    2
 0.5358793067768525    9    9    4    4
 0.587079194170495    9    9    5    5
 0.5413239563182576    9    9    6    6
 0.005357766510219426    9    9    7    1
 0.029228309181255    9    9    7    3
 0.5405366748405797    9    9    7    7
 0.5546128382886496    9    9    8    8
 0.6047495644207171    9    9    9    9
 -0.0003361779982836193    9    9   10    2
 0.02848138143235685    9    9   10    4
 0.6213509929541188    9    9   10   10
 -0.1496126043669849   10    1    2    1
 0.02753898357225306   10    1    3    2
 0.0148212030605201   10    1    4    1
 -0.008134532441245334   10    1    4    3
 0.005030914003648141   10    1    7    2
 0.02624511337849731   10    1    7    4
 -0.009911309013135763   10    1    8    6
 -0.009911309013135763   10    1    9    5
 0.03593526739621387   10    1   10    1
 0.005962232622227281   10    1   10    3
 -0.009542977897305708   10    1   10    7
 -0.1312665818548978   10    2    1    1
 -0.1310504915873259   10    2    2    2
 0.02801217340663276   10    2    3    1
 0.0221338765998186   10    2    3    3
 0.01429094096865747   10    2    4    2
 -0.01622351951586651   10    2    4    4
 0.006439462220086794   10    2    5    5
 0.006439462220086794   10    2    6    6
 0.006121197116250083   10    2    7    1
 0.01678715243297147   10    2    7    3
 -0.0121185370236748   10    2    7    7
 -0.0003361779982836064   10    2    8    8
 -0.0003361779982836064   10    2    9    9
 0.0370448424659887   10    2   10    2
 0.01373219287087294   10    2   10    4
 0.01353478089465099   10    2   10   10
 0.2263328771835194   10    3    2    1
 -0.004995123617625807   10    3    3    2
 -0.01144831357445154   10    3    4    1
 0.05920441514899731   10    3    4    3
 0.0109234140588451   10    3    7    2
 -0.05680773862047815   10    3    7    4
 0.1021480423468312   10    3    8    6
 0.1021480423468312   10    3    9    5
 0.005962232622227279   10    3   10    1
 0.1066529235384505   10    3   10    3
 0.05888608091623903   10    3   10    7
 0.04917036956781799   10    4    1    1
 0.04924693669100526   10    4    2    2
 0.002876419332623178   10    4    3    1
 0.07353187639815134   10    4    3    3
 -0.007462147318434112   10    4    4    2
 -0.01981441502460464   10    4    4    4
 0.04167203528547802   10    4    5    5
 0.04167203528547802   10    4    6    6
 0.01222982301532969   10    4    7    1
 0.02972206255748021   10    4    7    3
 -0.0274513191960441   10    4    7    7
 0.02848138143235668   10    4    8    8
 0.02848138143235668   10    4    9    9
 0.01373219287087296   10    4   10    2
 0.04791107557276603   10    4   10    4
 0.04564832573426643   10    4   10   10
 0.008593671482768201   10    5    5    2
 0.02383572756838222   10    5    5    4
 0.009888559692370935   10    5    9    1
 0.03401542903824798   10    5    9    3
 -0.004415767028058411   10    5    9    7
 0.03533445793527201   10    5   10    5
 0.008593671482768201   10    6    6    2
 0.02383572756838222   10    6    6    4
 0.009888559692370935   10    6    8    1
 0.03401542903824798   10    6    8    3
 -0.004415767028058411   10    6    8    7
 0.03533445793527201   10    6   10    6
 0.1933359536734653   10    7    2    1
 -0.006826296324286125   10    7    3    2
 -0.001708300603953671   10    7    4    1
 0.05481457807965456   10    7    4    3
 -0.003404913988231175   10    7    7    2
 -0.1243795456013846   10    7    7    4
 0.09213269829446429   10    7    8    6
 0.09213269829446429   10    7    9    5
 -0.009542977897305722   10    7   10    1
 0.05888608091623904   10    7   10    3
 0.0918150517247955   10    7   10    7
 0.01111747260367993   10    8    6    1
 0.06162918822020368   10    8    6    3
 0.0004407744591211659   10    8    7    6
 0.01260878052881993   10    8    8    2
 0.0360523940299002   10    8    8    4
 0.04716361027124589   10    8   10    8
 0.01111747260367993   10    9    5    1
 0.06162918822020368   10    9    5    3
 0.0004407744591211659   10    9    7    5
 0.01260878052881993   10    9    9    2
 0.0360523940299002   10    9    9    4
 0.04716361027124589   10    9   10    9
 0.8958031735768648   10   10    1    1
 0.8958777131362092   10   10    2    2
 -0.0055163682878784   10   10    3    1
 0.7241338005117464   10   10    3    3
 -0.0209471183537601   10   10    4    2
 0.5594683590134946   10   10    4    4
 0.6199586921604169   10   10    5    5
 0.6199586921604169   10   10    6    6
 0.02288005252328562   10   10    7    1
 0.08753998592074479   10   10    7    3
 0.5940888591771081   10   10    7    7
 0.6213509929541186   10   10    8    8
 0.6213509929541186   10   10    9    9
 0.013534780894651   10   10   10    2
 0.04564832573426733   10   10   10    4
 0.7600248802188229   10   10   10   10
 -27.54915488556389    1    1  0  0
 7.140657491033892e-15    2    1  0  0
 -27.54834496478076    2    2  0  0
 0.4635675509345977    3    1  0  0
 -2.101373943793368e-15    3    2  0  0
 -9.53314264668138    3    3  0  0
 -2.161579596428665e-15    4    1  0  0
 0.4988436049006508    4    2  0  0
 -7.675382504934504    4    4  0  0
 -8.054499426069885    5    5  0  0
 -8.054499426069885    6    6  0  0
 -0.2627968093192934    7    1  0  0
 -0.707094131060355    7    3  0  0
 -1.456065743922268e-15    7    4  0  0
 -7.776486527983712    7    7  0  0
 1.32062723987779e-15    8    6  0  0
 -7.832574599666746    8    8  0  0
 1.32062723987779e-15    9    5  0  0
 -7.832574599666746    9    9  0  0
 -1.191304010848193e-15   10    1  0  0
 0.2319547199704738   10    2  0  0
 1.293844412724999e-15   10    3  0  0
 -0.4242609843255363   10    4  0  0
 1.139046774109956e-15   10    7  0  0
 -8.31099802057717   10   10  0  0
 23.57243939552727  0  0  0  0
